<?xml version="1.0" encoding="UTF-8"?>

<!-- generated on 2024-04-24 16:07:22 by Eclipse SUMO sumo Version 1.19.0
<configuration xmlns:xsi="http://www.w3.org/2001/XMLSchema-instance" xsi:noNamespaceSchemaLocation="http://sumo.dlr.de/xsd/sumoConfiguration.xsd">

    <input>
        <net-file value="sumodata/net_1_1.xml"/>
        <route-files value="sumodata/veh_routes_1_1.xml"/>
        <junction-taz value="true"/>
    </input>

    <output>
        <tripinfo-output value="results/tripinfo_.xml"/>
        <tripinfo-output.write-unfinished value="True"/>
    </output>

    <time>
        <step-length value="0.25"/>
    </time>

    <processing>
        <collision.action value="warn"/>
        <collision.check-junctions value="true"/>
        <waiting-time-memory value="1000"/>
    </processing>

    <report>
        <xml-validation value="never"/>
    </report>

    <emissions>
        <device.emissions.probability value="1"/>
    </emissions>

    <traci_server>
        <remote-port value="65000"/>
    </traci_server>

    <random_number>
        <seed value="29"/>
    </random_number>

</configuration>
-->

<tripinfos xmlns:xsi="http://www.w3.org/2001/XMLSchema-instance" xsi:noNamespaceSchemaLocation="http://sumo.dlr.de/xsd/tripinfo_file.xsd">
